                         Program Version 5.0.4 -  RELEASE  -
|  1> ! def2-TZVPD TIGHTSCF NORMALOPT defgrid3
|  2> ! UKS
|  3> ! slowconv
|  4> ! NumFreq
|  5> ! M062X D3ZERO
|  6> %pal
|  7>  nprocs=32
|  8> end
|  9> %geom
| 10>    MaxIter 80
| 11>    Calc_Hess true
| 12>    NumHess true
| 13>    Hybrid_Hess {42 43} end
| 14>    Recalc_Hess 20
| 15>    MaxStep 0.20
| 16> end
| 17> %scf
| 18>  MaxIter 500
| 19> end
| 20> %maxcore 3000
| 21> %base "m062x_d3"
| 22> *xyzfile 0 2 mygeom.xyz
| 23>
| 24>
| 25>                          ****END OF INPUT****
 Total Charge           Charge          ....    0
 Multiplicity           Mult            ....    2
 Number of Electrons    NEL             ....  153
Dispersion correction           -0.004275119
FINAL SINGLE POINT ENERGY     -1162.957923840667
Dispersion correction            ... done
Dispersion correction           -0.004267065
FINAL SINGLE POINT ENERGY     -1162.957867161751
Dispersion correction            ... done
Dispersion correction           -0.004271361
FINAL SINGLE POINT ENERGY     -1162.957845985805
Dispersion correction            ... done
FINAL SINGLE POINT ENERGY     -1162.957786287031
FINAL SINGLE POINT ENERGY     -1162.957901055256
FINAL SINGLE POINT ENERGY     -1162.957913932792
FINAL SINGLE POINT ENERGY     -1162.957929356428
FINAL SINGLE POINT ENERGY     -1162.957949758143
FINAL SINGLE POINT ENERGY     -1162.957971008451
FINAL SINGLE POINT ENERGY     -1162.957991528697
FINAL SINGLE POINT ENERGY     -1162.958150157106
FINAL SINGLE POINT ENERGY     -1162.958152238637
FINAL SINGLE POINT ENERGY     -1162.958154790992
FINAL SINGLE POINT ENERGY     -1162.958158739011
FINAL SINGLE POINT ENERGY     -1162.958163269794
FINAL SINGLE POINT ENERGY     -1162.958167870133
FINAL SINGLE POINT ENERGY     -1162.958171046977
Dispersion correction            ... done
Dispersion correction           -0.004263929
FINAL SINGLE POINT ENERGY     -1162.958172998520
Dispersion correction            ... done
Dispersion correction           -0.004263794
FINAL SINGLE POINT ENERGY     -1162.958174633261
Dispersion correction            ... done
                    ***********************HURRAY********************

CARTESIAN COORDINATES (ANGSTROEM)
---------------------------------
  O      2.813844   -0.670672    2.316342
  H      2.549503   -1.283424    1.614388
  H      2.030622   -0.565695    2.881798
  O      0.120412    1.571279    1.418493
  H      0.125937    1.205174    2.319941
  H      1.067301    1.582402    1.122013
  O     -1.982102    0.169353    0.378960
  H     -1.149652    0.608704    0.664483
  H     -1.732669   -0.440561   -0.343706
  O      0.015390    1.030646   -2.093713
  H     -0.237934    1.827715   -1.602572
  H      0.949816    0.849584   -1.904289
  O      2.646924    0.035676   -1.641939
  H      3.182228   -0.122324   -2.424010
  H      2.545362   -0.820622   -1.181849
  O     -0.354870   -3.044123   -0.227045
  H     -0.780258   -2.467803   -0.912871
  H     -0.630700   -3.945537   -0.417005
  O      0.299730   -0.191744    3.595730
  H     -0.289386   -0.872626    3.186993
  H      0.115143   -0.186020    4.538497
  O     -1.343651   -1.848269    2.269470
  H     -0.953621   -2.383480    1.561004
  H     -1.879840   -1.194715    1.789907
  O     -0.893502    3.298188   -0.401973
  H     -0.586333    2.876035    0.426410
  H     -0.485311    4.167727   -0.436483
  O      2.252624   -2.244938   -0.084838
  H      1.344367   -2.614061   -0.151141
  H      2.858919   -2.990968   -0.108857
  O     -3.875030   -0.504811   -2.731810
  H     -4.627050   -0.508007   -2.120728
  H     -3.687906    0.438380   -2.828838
  O     -1.403098   -1.285201   -1.910061
  H     -0.883482   -0.483299   -2.137534
  H     -2.311242   -1.151474   -2.264168
  O     -3.110210    1.892947   -1.261642
  H     -2.744169    1.241671   -0.591701
  H     -2.719282    2.746383   -1.001948
  O      2.704108    1.600498    0.741273
  H      2.949515    0.870326    1.345347
  H      2.878751    1.254357   -0.145819
  C     -5.018057    1.751608   -0.685333
  N     -5.763289    0.874590   -0.818622

 Multiplicity           Mult            ....    2
 Number of Electrons    NEL             ....  153
 Basis Dimension        Dim             ....  886

ORBITAL ENERGIES
----------------
                 SPIN UP ORBITALS
  NO   OCC          E(Eh)            E(eV)
   0   1.0000     -19.677408      -535.4495
   1   1.0000     -19.668465      -535.2061
   2   1.0000     -19.664197      -535.0900
   3   1.0000     -19.660055      -534.9773
   4   1.0000     -19.652045      -534.7593
   5   1.0000     -19.644730      -534.5603
   6   1.0000     -19.639470      -534.4171
   7   1.0000     -19.634351      -534.2779
   8   1.0000     -19.633333      -534.2501
   9   1.0000     -19.632612      -534.2305
  10   1.0000     -19.629810      -534.1543
  11   1.0000     -19.628547      -534.1199
  12   1.0000     -19.618985      -533.8597
  13   1.0000     -19.618906      -533.8576
  14   1.0000     -14.726104      -400.7177
  15   1.0000     -10.575144      -287.7643
  16   1.0000      -1.184109       -32.2212
  17   1.0000      -1.181808       -32.1586
  18   1.0000      -1.170444       -31.8494
  19   1.0000      -1.164267       -31.6813
  20   1.0000      -1.160547       -31.5801
  21   1.0000      -1.157117       -31.4868
  22   1.0000      -1.151511       -31.3342
  23   1.0000      -1.143931       -31.1279
  24   1.0000      -1.141486       -31.0614
  25   1.0000      -1.135347       -30.8944
  26   1.0000      -1.132051       -30.8047
  27   1.0000      -1.128235       -30.7008
  28   1.0000      -1.124851       -30.6087
  29   1.0000      -1.116185       -30.3729
  30   1.0000      -0.994661       -27.0661
  31   1.0000      -0.661271       -17.9941
  32   1.0000      -0.651896       -17.7390
  33   1.0000      -0.650136       -17.6911
  34   1.0000      -0.649816       -17.6824
  35   1.0000      -0.647660       -17.6237
  36   1.0000      -0.638012       -17.3612
  37   1.0000      -0.629046       -17.1172
  38   1.0000      -0.628439       -17.1007
  39   1.0000      -0.619980       -16.8705
  40   1.0000      -0.615402       -16.7459
  41   1.0000      -0.611793       -16.6477
  42   1.0000      -0.609354       -16.5814
  43   1.0000      -0.605908       -16.4876
  44   1.0000      -0.604889       -16.4599
  45   1.0000      -0.581546       -15.8247
  46   1.0000      -0.546117       -14.8606
  47   1.0000      -0.536545       -14.6001
  48   1.0000      -0.532037       -14.4775
  49   1.0000      -0.524970       -14.2852
  50   1.0000      -0.511526       -13.9193
  51   1.0000      -0.507239       -13.8027
  52   1.0000      -0.502530       -13.6745
  53   1.0000      -0.501128       -13.6364
  54   1.0000      -0.490840       -13.3564
  55   1.0000      -0.483541       -13.1578
  56   1.0000      -0.479375       -13.0445
  57   1.0000      -0.475597       -12.9416
  58   1.0000      -0.468420       -12.7464
  59   1.0000      -0.455911       -12.4060
  60   1.0000      -0.449701       -12.2370
  61   1.0000      -0.445454       -12.1214
  62   1.0000      -0.439076       -11.9479
  63   1.0000      -0.434355       -11.8194
  64   1.0000      -0.429292       -11.6816
  65   1.0000      -0.424463       -11.5502
  66   1.0000      -0.423843       -11.5333
  67   1.0000      -0.418708       -11.3936
  68   1.0000      -0.413428       -11.2499
  69   1.0000      -0.408677       -11.1207
  70   1.0000      -0.404821       -11.0157
  71   1.0000      -0.403204       -10.9717
  72   1.0000      -0.402958       -10.9650
  73   1.0000      -0.390488       -10.6257
  74   1.0000      -0.389976       -10.6118
  75   1.0000      -0.389681       -10.6038
  76   1.0000      -0.332866        -9.0578
  77   0.0000      -0.027251        -0.7415
  78   0.0000      -0.006920        -0.1883
  79   0.0000      -0.004367        -0.1188
  80   0.0000       0.003881         0.1056
  81   0.0000       0.010872         0.2958

                 SPIN DOWN ORBITALS
  NO   OCC          E(Eh)            E(eV)
   0   1.0000     -19.669056      -535.2222
   1   1.0000     -19.668465      -535.2061
   2   1.0000     -19.664197      -535.0900
   3   1.0000     -19.660054      -534.9773
   4   1.0000     -19.651977      -534.7575
   5   1.0000     -19.644730      -534.5603
   6   1.0000     -19.639449      -534.4166
   7   1.0000     -19.634352      -534.2779
   8   1.0000     -19.633332      -534.2501
   9   1.0000     -19.632613      -534.2306
  10   1.0000     -19.629737      -534.1523
  11   1.0000     -19.628524      -534.1193
  12   1.0000     -19.618985      -533.8597
  13   1.0000     -19.618906      -533.8576
  14   1.0000     -14.724753      -400.6809
  15   1.0000     -10.563395      -287.4446
  16   1.0000      -1.182169       -32.1684
  17   1.0000      -1.171354       -31.8742
  18   1.0000      -1.169017       -31.8106
  19   1.0000      -1.163210       -31.6526
  20   1.0000      -1.157410       -31.4947
  21   1.0000      -1.156690       -31.4751
  22   1.0000      -1.147473       -31.2243
  23   1.0000      -1.143653       -31.1204
  24   1.0000      -1.141079       -31.0503
  25   1.0000      -1.135125       -30.8883
  26   1.0000      -1.131670       -30.7943
  27   1.0000      -1.128165       -30.6989
  28   1.0000      -1.124298       -30.5937
  29   1.0000      -1.116138       -30.3717
  30   1.0000      -0.977715       -26.6050
  31   1.0000      -0.661264       -17.9939
  32   1.0000      -0.651886       -17.7387
  33   1.0000      -0.650061       -17.6891
  34   1.0000      -0.647773       -17.6268
  35   1.0000      -0.644131       -17.5277
  36   1.0000      -0.636358       -17.3162
  37   1.0000      -0.628913       -17.1136
  38   1.0000      -0.627456       -17.0739
  39   1.0000      -0.619597       -16.8601
  40   1.0000      -0.615152       -16.7391
  41   1.0000      -0.611772       -16.6472
  42   1.0000      -0.609337       -16.5809
  43   1.0000      -0.605171       -16.4675
  44   1.0000      -0.604887       -16.4598
  45   1.0000      -0.549787       -14.9605
  46   1.0000      -0.545819       -14.8525
  47   1.0000      -0.536178       -14.5901
  48   1.0000      -0.529964       -14.4211
  49   1.0000      -0.512612       -13.9489
  50   1.0000      -0.506794       -13.7906
  51   1.0000      -0.504179       -13.7194
  52   1.0000      -0.501153       -13.6371
  53   1.0000      -0.490938       -13.3591
  54   1.0000      -0.487103       -13.2547
  55   1.0000      -0.480308       -13.0698
  56   1.0000      -0.479150       -13.0383
  57   1.0000      -0.471508       -12.8304
  58   1.0000      -0.465138       -12.6570
  59   1.0000      -0.454290       -12.3619
  60   1.0000      -0.445414       -12.1203
  61   1.0000      -0.439080       -11.9480
  62   1.0000      -0.434352       -11.8193
  63   1.0000      -0.428956       -11.6725
  64   1.0000      -0.424729       -11.5575
  65   1.0000      -0.423627       -11.5275
  66   1.0000      -0.418738       -11.3944
  67   1.0000      -0.413653       -11.2561
  68   1.0000      -0.412499       -11.2247
  69   1.0000      -0.407634       -11.0923
  70   1.0000      -0.404270       -11.0007
  71   1.0000      -0.402982       -10.9657
  72   1.0000      -0.402564       -10.9543
  73   1.0000      -0.389977       -10.6118
  74   1.0000      -0.378126       -10.2893
  75   1.0000      -0.368373       -10.0240
  76   0.0000      -0.093112        -2.5337
  77   0.0000      -0.027071        -0.7366
  78   0.0000      -0.006434        -0.1751
  79   0.0000      -0.003890        -0.1059
  80   0.0000       0.004288         0.1167

MULLIKEN ATOMIC CHARGES AND SPIN POPULATIONS
--------------------------------------------
   0 O :   -0.996145    0.000002
   1 H :    0.529658   -0.000011
   2 H :    0.501813    0.000003
   3 O :   -1.049960    0.000160
   4 H :    0.384380    0.000394
   5 H :    0.606760   -0.000911
   6 O :   -1.188757    0.000103
   7 H :    0.734833    0.003311
   8 H :    0.613510    0.010272
   9 O :   -0.977487   -0.005851
  10 H :    0.464289    0.010165
  11 H :    0.508077   -0.004217
  12 O :   -0.895698    0.000229
  13 H :    0.311216    0.000138
  14 H :    0.581981   -0.000080
  15 O :   -0.987457    0.000210
  16 H :    0.555989   -0.000292
  17 H :    0.323070    0.000238
  18 O :   -0.908035   -0.000090
  19 H :    0.618417    0.000226
  20 H :    0.307118    0.000028
  21 O :   -1.006183   -0.000520
  22 H :    0.497888    0.000087
  23 H :    0.469937   -0.000571
  24 O :   -0.797624   -0.001820
  25 H :    0.492832    0.000179
  26 H :    0.313507   -0.001022
  27 O :   -1.003025    0.000038
  28 H :    0.597797    0.000015
  29 H :    0.348185   -0.000042
  30 O :   -0.872087    0.002924
  31 H :    0.428758   -0.004730
  32 H :    0.389507    0.002109
  33 O :   -1.047194   -0.002834
  34 H :    0.479713    0.003845
  35 H :    0.502716   -0.002919
  36 O :   -0.602913    0.152635
  37 H :    0.599322    0.032727
  38 H :    0.431274   -0.020366
  39 O :   -0.971117    0.000055
  40 H :    0.528637    0.000031
  41 H :    0.459663   -0.000000
  42 C :    0.116972    0.811896
  43 N :   -0.394137    0.014258
Sum of atomic charges         :    0.0000000

LOEWDIN ATOMIC CHARGES AND SPIN POPULATIONS
-------------------------------------------
   0 O :   -0.073409    0.000007
   1 H :    0.018330    0.000002
   2 H :    0.022154    0.000002
   3 O :   -0.096391    0.000158
   4 H :    0.045643    0.000017
   5 H :    0.032141    0.000015
   6 O :   -0.071553    0.002686
   7 H :    0.037193    0.000281
   8 H :    0.033839    0.000453
   9 O :   -0.059410    0.001770
  10 H :    0.026167    0.000962
  11 H :    0.024165    0.000045
  12 O :   -0.068676    0.000077
  13 H :    0.078497    0.000003
  14 H :    0.031341    0.000004
  15 O :   -0.078979    0.000054
  16 H :    0.032331    0.000036
  17 H :    0.083275    0.000007
  18 O :   -0.085703    0.000019
  19 H :    0.026700    0.000009
  20 H :    0.075795    0.000002
  21 O :   -0.064026    0.000098
  22 H :    0.031890    0.000013
  23 H :    0.041515    0.000048
  24 O :   -0.068974    0.003790
  25 H :    0.032340    0.000185
  26 H :    0.076109    0.000204
  27 O :   -0.068402    0.000015
  28 H :    0.032931    0.000007
  29 H :    0.082256    0.000001
  30 O :   -0.067535    0.005353
  31 H :    0.029971    0.003421
  32 H :    0.044936    0.000885
  33 O :   -0.097222    0.000551
  34 H :    0.038039    0.000289
  35 H :    0.043045    0.000278
  36 O :   -0.072414    0.325946
  37 H :    0.025592    0.001728
  38 H :    0.063844    0.001011
  39 O :   -0.073907    0.000033
  40 H :    0.029266    0.000002
  41 H :    0.026914    0.000007
  42 C :   -0.107169    0.553938
  43 N :   -0.012448    0.095590

  Mayer bond orders larger than 0.100000
B(  0-O ,  1-H ) :   0.7023 B(  0-O ,  2-H ) :   0.7207 B(  1-H , 27-O ) :  -0.1020
B(  3-O ,  4-H ) :   0.9959 B(  3-O ,  5-H ) :   0.6392 B(  3-O ,  7-H ) :  -0.2568
B(  3-O , 18-O ) :  -0.1061 B(  5-H , 39-O ) :  -0.1500 B(  6-O ,  7-H ) :   0.5983
B(  6-O ,  8-H ) :   0.6541 B(  8-H , 33-O ) :  -0.2695 B(  9-O , 10-H ) :   0.8298
B(  9-O , 11-H ) :   0.7280 B(  9-O , 33-O ) :  -0.1118 B( 12-O , 13-H ) :   1.0046
B( 12-O , 14-H ) :   0.6831 B( 14-H , 27-O ) :  -0.1059 B( 15-O , 16-H ) :   0.6031
B( 15-O , 17-H ) :   1.0201 B( 15-O , 28-H ) :  -0.1338 B( 18-O , 19-H ) :   0.6286
B( 18-O , 20-H ) :   0.9964 B( 21-O , 22-H ) :   0.7668 B( 21-O , 23-H ) :   0.6397
B( 24-O , 25-H ) :   0.6690 B( 24-O , 26-H ) :   0.9788 B( 27-O , 28-H ) :   0.6813
B( 27-O , 29-H ) :   0.9912 B( 30-O , 31-H ) :   0.7876 B( 30-O , 32-H ) :   0.7987
B( 30-O , 35-H ) :  -0.1309 B( 33-O , 34-H ) :   0.7709 B( 33-O , 35-H ) :   0.8611
B( 36-O , 37-H ) :   0.4806 B( 36-O , 38-H ) :   0.8742 B( 36-O , 42-C ) :   0.2192
B( 39-O , 40-H ) :   0.7215 B( 39-O , 41-H ) :   0.7536 B( 42-C , 43-N ) :   2.2932

Dispersion correction           -0.004263434
FINAL SINGLE POINT ENERGY     -1162.958175972112

DIPOLE MOMENT
-------------
                                X             Y             Z
Electronic contribution:    -11.22354       3.76704      -2.18108
Nuclear contribution   :     13.95725      -4.86481       2.05539
                        -----------------------------------------
Total Dipole Moment    :      2.73371      -1.09777      -0.12570
                        -----------------------------------------
Magnitude (a.u.)       :      2.94857
Magnitude (Debye)      :      7.49468

VIBRATIONAL FREQUENCIES
-----------------------

Scaling factor for frequencies =  1.000000000 (already applied!)

   0:         0.00 cm**-1
   1:         0.00 cm**-1
   2:         0.00 cm**-1
   3:         0.00 cm**-1
   4:         0.00 cm**-1
   5:         0.00 cm**-1
   6:        10.82 cm**-1
   7:        31.29 cm**-1
   8:        42.42 cm**-1
   9:        45.54 cm**-1
  10:        50.20 cm**-1
  11:        51.70 cm**-1
  12:        55.58 cm**-1
  13:        55.98 cm**-1
  14:        57.30 cm**-1
  15:        61.85 cm**-1
  16:        66.39 cm**-1
  17:        69.60 cm**-1
  18:        76.56 cm**-1
  19:        84.45 cm**-1
  20:        88.19 cm**-1
  21:       105.64 cm**-1
  22:       120.18 cm**-1
  23:       128.96 cm**-1
  24:       140.50 cm**-1
  25:       145.56 cm**-1
  26:       150.98 cm**-1
  27:       158.43 cm**-1
  28:       160.31 cm**-1
  29:       160.83 cm**-1
  30:       175.76 cm**-1
  31:       176.80 cm**-1
  32:       189.52 cm**-1
  33:       194.61 cm**-1
  34:       204.49 cm**-1
  35:       218.28 cm**-1
  36:       221.90 cm**-1
  37:       230.65 cm**-1
  38:       235.34 cm**-1
  39:       238.45 cm**-1
  40:       243.42 cm**-1
  41:       253.14 cm**-1
  42:       256.94 cm**-1
  43:       265.46 cm**-1
  44:       272.46 cm**-1
  45:       281.72 cm**-1
  46:       291.32 cm**-1
  47:       292.71 cm**-1
  48:       302.63 cm**-1
  49:       326.14 cm**-1
  50:       329.48 cm**-1
  51:       335.96 cm**-1
  52:       384.31 cm**-1
  53:       395.84 cm**-1
  54:       407.22 cm**-1
  55:       415.70 cm**-1
  56:       439.74 cm**-1
  57:       442.64 cm**-1
  58:       458.38 cm**-1
  59:       473.02 cm**-1
  60:       498.38 cm**-1
  61:       502.76 cm**-1
  62:       524.71 cm**-1
  63:       534.49 cm**-1
  64:       549.17 cm**-1
  65:       565.06 cm**-1
  66:       584.25 cm**-1
  67:       592.99 cm**-1
  68:       608.53 cm**-1
  69:       625.32 cm**-1
  70:       642.65 cm**-1
  71:       661.31 cm**-1
  72:       664.90 cm**-1
  73:       676.25 cm**-1
  74:       684.81 cm**-1
  75:       697.63 cm**-1
  76:       703.95 cm**-1
  77:       728.11 cm**-1
  78:       765.90 cm**-1
  79:       783.58 cm**-1
  80:       791.37 cm**-1
  81:       823.40 cm**-1
  82:       848.63 cm**-1
  83:       879.77 cm**-1
  84:       906.96 cm**-1
  85:       934.75 cm**-1
  86:       936.58 cm**-1
  87:      1001.75 cm**-1
  88:      1077.09 cm**-1
  89:      1617.07 cm**-1
  90:      1632.21 cm**-1
  91:      1634.10 cm**-1
  92:      1635.95 cm**-1
  93:      1646.45 cm**-1
  94:      1652.67 cm**-1
  95:      1658.52 cm**-1
  96:      1666.10 cm**-1
  97:      1668.91 cm**-1
  98:      1673.14 cm**-1
  99:      1689.14 cm**-1
 100:      1692.19 cm**-1
 101:      1700.23 cm**-1
 102:      1720.55 cm**-1
 103:      2197.66 cm**-1
 104:      3031.01 cm**-1
 105:      3216.32 cm**-1
 106:      3240.91 cm**-1
 107:      3315.16 cm**-1
 108:      3428.11 cm**-1
 109:      3451.71 cm**-1
 110:      3461.31 cm**-1
 111:      3477.45 cm**-1
 112:      3547.09 cm**-1
 113:      3556.59 cm**-1
 114:      3587.99 cm**-1
 115:      3592.22 cm**-1
 116:      3685.66 cm**-1
 117:      3701.16 cm**-1
 118:      3710.86 cm**-1
 119:      3716.08 cm**-1
 120:      3720.46 cm**-1
 121:      3770.01 cm**-1
 122:      3771.87 cm**-1
 123:      3780.18 cm**-1
 124:      3787.32 cm**-1
 125:      3797.69 cm**-1
 126:      3849.28 cm**-1
 127:      3905.74 cm**-1
 128:      3908.61 cm**-1
 129:      3913.27 cm**-1
 130:      3914.95 cm**-1
 131:      3919.17 cm**-1

IR SPECTRUM   WARNING: Spectrum is based on Hybrid Hessian
-----------

 Mode   freq       eps      Int      T**2         TX        TY        TZ
       cm**-1   L/(mol*cm) km/mol    a.u.
----------------------------------------------------------------------------
  6:     10.82   0.000440    2.22  0.012676  ( 0.045831 -0.054315  0.087323)
  7:     31.29   0.000806    4.07  0.008035  ( 0.072860 -0.050592 -0.012929)
  8:     42.42   0.000329    1.66  0.002419  ( 0.037836 -0.017178  0.026319)
  9:     45.54   0.000511    2.58  0.003500  ( 0.009035  0.037072 -0.045214)
 10:     50.20   0.000075    0.38  0.000467  ( 0.012258 -0.008410  0.015691)
 11:     51.70   0.000295    1.49  0.001780  ( 0.029364  0.009766  0.028678)
 12:     55.58   0.000213    1.08  0.001199  (-0.025170 -0.004770 -0.023290)
 13:     55.98   0.000029    0.15  0.000162  (-0.008815  0.008340  0.003797)
 14:     57.30   0.000225    1.14  0.001227  ( 0.024846  0.022815 -0.009427)
 15:     61.85   0.000047    0.24  0.000235  ( 0.006414  0.013231  0.004322)
 16:     66.39   0.000145    0.73  0.000682  ( 0.025918 -0.002898  0.001309)
 17:     69.60   0.000756    3.82  0.003390  (-0.001238  0.010706 -0.057222)
 18:     76.56   0.000349    1.76  0.001421  ( 0.032719 -0.005419  0.017911)
 19:     84.45   0.000485    2.45  0.001792  ( 0.002269  0.026610 -0.032849)
 20:     88.19   0.000499    2.52  0.001766  ( 0.036996 -0.013714  0.014448)
 21:    105.64   0.001090    5.51  0.003221  (-0.037556  0.042214  0.005344)
 22:    120.18   0.000959    4.85  0.002490  ( 0.039786 -0.017042  0.024837)
 23:    128.96   0.001565    7.91  0.003786  (-0.048142  0.034176 -0.017345)
 24:    140.50   0.000282    1.43  0.000627  ( 0.022828  0.008996 -0.004985)
 25:    145.56   0.000523    2.64  0.001120  (-0.032089 -0.000118 -0.009518)
 26:    150.98   0.000288    1.45  0.000595  (-0.005315  0.023185 -0.005362)
 27:    158.43   0.001257    6.35  0.002476  ( 0.038417 -0.017681 -0.026217)
 28:    160.31   0.000325    1.64  0.000633  (-0.015397 -0.005841  0.019034)
 29:    160.83   0.001541    7.79  0.002991  ( 0.024981 -0.047195 -0.011796)
 30:    175.76   0.001505    7.61  0.002672  ( 0.029675  0.041724  0.007103)
 31:    176.80   0.001400    7.08  0.002471  (-0.048272 -0.004968  0.010798)
 32:    189.52   0.001285    6.49  0.002116  (-0.003960 -0.042682  0.016686)
 33:    194.61   0.000728    3.68  0.001168  ( 0.027243 -0.017969  0.010152)
 34:    204.49   0.001646    8.32  0.002512  (-0.040286 -0.023406 -0.018478)
 35:    218.28   0.004162   21.03  0.005950  (-0.041492 -0.058464  0.028459)
 36:    221.90   0.013615   68.80  0.019147  (-0.013073 -0.078402  0.113266)
 37:    230.65   0.012611   63.73  0.017063  ( 0.129873  0.013076  0.005026)
 38:    235.34   0.002161   10.92  0.002865  (-0.024235  0.045154 -0.015459)
 39:    238.45   0.008366   42.28  0.010948  (-0.052290 -0.079804 -0.042957)
 40:    243.42   0.007477   37.78  0.009585  (-0.076392  0.019424 -0.058069)
 41:    253.14   0.005054   25.54  0.006230  ( 0.063497 -0.024313  0.040094)
 42:    256.94   0.005580   28.20  0.006777  (-0.055433 -0.051674 -0.032158)
 43:    265.46   0.004572   23.10  0.005374  ( 0.050251  0.015760  0.050998)
 44:    272.46   0.003775   19.08  0.004323  ( 0.055828 -0.016267  0.030691)
 45:    281.72   0.007936   40.10  0.008790  (-0.038166  0.055493  0.065225)
 46:    291.32   0.015192   76.77  0.016274  ( 0.088429 -0.064714 -0.065314)
 47:    292.71   0.005528   27.94  0.005894  (-0.022187  0.068526 -0.026568)
 48:    302.63   0.004100   20.72  0.004227  (-0.059023  0.024900 -0.011123)
 49:    326.14   0.004741   23.96  0.004536  ( 0.029324 -0.007501 -0.060165)
 50:    329.48   0.003099   15.66  0.002935  (-0.028808  0.026080  0.037751)
 51:    335.96   0.004035   20.39  0.003748  ( 0.011571 -0.020218 -0.056615)
 52:    384.31   0.003547   17.93  0.002880  (-0.053520  0.001825 -0.003567)
 53:    395.84   0.008326   42.08  0.006564  (-0.009826  0.080226 -0.005589)
 54:    407.22   0.005314   26.85  0.004072  (-0.042274 -0.047407 -0.006143)
 55:    415.70   0.002150   10.87  0.001614  ( 0.037081  0.005741 -0.014359)
 56:    439.74   0.011403   57.63  0.008092  ( 0.041429 -0.008127  0.079436)
 57:    442.64   0.003527   17.82  0.002486  (-0.020472 -0.012983  0.043576)
 58:    458.38   0.000537    2.71  0.000365  ( 0.001655  0.000095 -0.019042)
 59:    473.02   0.004849   24.50  0.003199  ( 0.010067 -0.015788  0.053369)
 60:    498.38   0.001640    8.29  0.001027  ( 0.007535 -0.030792  0.004665)
 61:    502.76   0.002337   11.81  0.001451  (-0.018111  0.003412 -0.033334)
 62:    524.71   0.013108   66.24  0.007796  ( 0.018789 -0.082714 -0.024518)
 63:    534.49   0.019081   96.43  0.011141  (-0.087272  0.000560 -0.059364)
 64:    549.17   0.003423   17.30  0.001945  (-0.006884 -0.010396  0.042305)
 65:    565.06   0.023515  118.83  0.012986  ( 0.100804  0.034702  0.040258)
 66:    584.25   0.009182   46.40  0.004904  ( 0.038427 -0.058345  0.004836)
 67:    592.99   0.046505  235.02  0.024474  ( 0.145419 -0.057577  0.003452)
 68:    608.53   0.012253   61.92  0.006283  ( 0.071707  0.032008  0.010821)
 69:    625.32   0.040370  204.02  0.020147  (-0.017792 -0.081119  0.115108)
 70:    642.65   0.013938   70.43  0.006768  ( 0.031445 -0.064778  0.039785)
 71:    661.31   0.020429  103.24  0.009640  ( 0.096225  0.001581  0.019449)
 72:    664.90   0.116533  588.91  0.054693  (-0.023649 -0.113612  0.203043)
 73:    676.25   0.015038   76.00  0.006939  (-0.057732 -0.028266 -0.052986)
 74:    684.81   0.004118   20.81  0.001877  (-0.005571 -0.038662  0.018733)
 75:    697.63   0.006468   32.68  0.002893  ( 0.038890  0.034089 -0.014786)
 76:    703.95   0.041955  212.02  0.018599  (-0.011148  0.135914  0.001326)
 77:    728.11   0.033757  170.59  0.014468  ( 0.027200  0.048313  0.106742)
 78:    765.90   0.018456   93.27  0.007520  (-0.035974  0.041228  0.067274)
 79:    783.58   0.024971  126.19  0.009945  (-0.096515 -0.021169 -0.013477)
 80:    791.37   0.002463   12.45  0.000971  ( 0.028480 -0.004947  0.011649)
 81:    823.40   0.010544   53.29  0.003996  (-0.052075  0.034081  0.011090)
 82:    848.63   0.014983   75.72  0.005510  (-0.002482  0.065317  0.035175)
 83:    879.77   0.069115  349.28  0.024516  ( 0.105231 -0.102152 -0.054837)
 84:    906.96   0.029459  148.87  0.010136  ( 0.048893 -0.036269  0.080189)
 85:    934.75   0.023690  119.72  0.007909  (-0.068407 -0.044365  0.035510)
 86:    936.58   0.029491  149.04  0.009826  ( 0.063383  0.068564  0.033286)
 87:   1001.75   0.001787    9.03  0.000557  (-0.022817  0.001589  0.005797)
 88:   1077.09   0.009809   49.57  0.002842  (-0.028139 -0.031082  0.032927)
 89:   1617.07   0.025158  127.14  0.004855  ( 0.045895  0.028274  0.044149)
 90:   1632.21   0.001375    6.95  0.000263  (-0.015080 -0.004786  0.003548)
 91:   1634.10   0.028279  142.91  0.005401  ( 0.035721 -0.054398 -0.034137)
 92:   1635.95   0.016568   83.73  0.003160  ( 0.020818  0.037203 -0.036645)
 93:   1646.45   0.001382    6.98  0.000262  (-0.013848 -0.000348  0.008369)
 94:   1652.67   0.031931  161.36  0.006029  (-0.024560  0.062349  0.039227)
 95:   1658.52   0.002432   12.29  0.000458  ( 0.019238  0.005614 -0.007478)
 96:   1666.10   0.012131   61.31  0.002272  (-0.021375 -0.032482 -0.027572)
 97:   1668.91   0.018115   91.55  0.003387  ( 0.043709 -0.003526  0.038267)
 98:   1673.14   0.012101   61.15  0.002257  ( 0.036177  0.008138  0.029699)
 99:   1689.14   0.016351   82.63  0.003021  ( 0.011070 -0.051693  0.015036)
100:   1692.19   0.014838   74.98  0.002736  (-0.004940  0.001561  0.052052)
101:   1700.23   0.007442   37.61  0.001366  ( 0.032889 -0.013428  0.010195)
102:   1720.55   0.004615   23.32  0.000837  ( 0.016300 -0.003088  0.023704)
103:   2197.66   0.011625   58.75  0.001651  (-0.039194  0.009033  0.005741)
104:   3031.01   0.371415  1876.98  0.038240  ( 0.156922 -0.090832  0.073245)
105:   3216.32   0.147466  745.23  0.014308  ( 0.113804  0.014549 -0.033838)
106:   3240.91   0.352560  1781.69  0.033948  ( 0.132426 -0.098864  0.081465)
107:   3315.16   0.124445  628.90  0.011714  ( 0.058293  0.073298  0.054256)
108:   3428.11   0.082744  418.15  0.007532  (-0.064303  0.004450 -0.058117)
109:   3451.71   0.036464  184.27  0.003297  (-0.038818  0.042264  0.001886)
110:   3461.31   0.039900  201.64  0.003597  (-0.019406 -0.053790  0.018091)
111:   3477.45   0.409203  2067.95  0.036722  ( 0.163346  0.100139  0.003427)
112:   3547.09   0.058654  296.41  0.005160  ( 0.050935 -0.008073  0.050007)
113:   3556.59   0.085806  433.63  0.007529  ( 0.009343 -0.052031  0.068807)
114:   3587.99   0.186500  942.50  0.016221  ( 0.018796 -0.098870  0.078053)
115:   3592.22   0.137333  694.02  0.011930  (-0.018868 -0.049091 -0.095731)
116:   3685.66   0.043095  217.79  0.003649  (-0.024422  0.044768 -0.032377)
117:   3701.16   0.012415   62.74  0.001047  (-0.016445  0.002717 -0.027729)
118:   3710.86   0.019591   99.01  0.001648  (-0.030259  0.014483  0.022851)
119:   3716.08   0.125780  635.64  0.010563  ( 0.045257  0.062780 -0.067624)
120:   3720.46   0.110558  558.71  0.009273  ( 0.084707  0.034957  0.029600)
121:   3770.01   0.006517   32.94  0.000539  (-0.014674 -0.001310 -0.017956)
122:   3771.87   0.132803  671.13  0.010987  (-0.068704  0.079165 -0.000337)
123:   3780.18   0.027957  141.28  0.002308  ( 0.028658 -0.027260 -0.027267)
124:   3787.32   0.040097  202.64  0.003304  (-0.011230  0.030590  0.047350)
125:   3797.69   0.198061  1000.92  0.016275  ( 0.047127 -0.063399 -0.100174)
126:   3849.28   0.016090   81.31  0.001304  (-0.018640 -0.028744  0.011435)
127:   3905.74   0.011499   58.11  0.000919  ( 0.024820  0.017357  0.001208)
128:   3908.61   0.025411  128.42  0.002029  (-0.021561  0.038927 -0.006972)
129:   3913.27   0.019489   98.49  0.001554  (-0.006973 -0.034916  0.016923)
130:   3914.95   0.017313   87.50  0.001380  (-0.004387 -0.010276 -0.035429)
131:   3919.17   0.021235  107.31  0.001691  (-0.023553 -0.011016  0.031856)

--------------------------
THERMOCHEMISTRY AT 298.15K
--------------------------

Temperature         ... 298.15 K
Pressure            ... 1.00 atm
Total Mass          ... 278.23 AMU

Throughout the following assumptions are being made:
  (1) The electronic state is orbitally nondegenerate
      but the spin degeneracy is treated
  (2) There are no thermally accessible electronically excited states
  (3) Hindered rotations indicated by low frequency modes are not
      treated as such but are treated as vibrations and this may
      cause some error
  (4) All equations used are the standard statistical mechanics
      equations for an ideal gas
  (5) All vibrations are strictly harmonic

freq.      10.82  E(vib)   ...       0.58
freq.      31.29  E(vib)   ...       0.55
freq.      42.42  E(vib)   ...       0.53
freq.      45.54  E(vib)   ...       0.53
freq.      50.20  E(vib)   ...       0.52
freq.      51.70  E(vib)   ...       0.52
freq.      55.58  E(vib)   ...       0.52
freq.      55.98  E(vib)   ...       0.52
freq.      57.30  E(vib)   ...       0.51
freq.      61.85  E(vib)   ...       0.51
freq.      66.39  E(vib)   ...       0.50
freq.      69.60  E(vib)   ...       0.50
freq.      76.56  E(vib)   ...       0.49
freq.      84.45  E(vib)   ...       0.48
freq.      88.19  E(vib)   ...       0.48
freq.     105.64  E(vib)   ...       0.45
freq.     120.18  E(vib)   ...       0.44
freq.     128.96  E(vib)   ...       0.43
freq.     140.50  E(vib)   ...       0.41
freq.     145.56  E(vib)   ...       0.41
freq.     150.98  E(vib)   ...       0.40
freq.     158.43  E(vib)   ...       0.39
freq.     160.31  E(vib)   ...       0.39
freq.     160.83  E(vib)   ...       0.39
freq.     175.76  E(vib)   ...       0.38
freq.     176.80  E(vib)   ...       0.38
freq.     189.52  E(vib)   ...       0.36
freq.     194.61  E(vib)   ...       0.36
freq.     204.49  E(vib)   ...       0.35
freq.     218.28  E(vib)   ...       0.33
freq.     221.90  E(vib)   ...       0.33
freq.     230.65  E(vib)   ...       0.32
freq.     235.34  E(vib)   ...       0.32
freq.     238.45  E(vib)   ...       0.32
freq.     243.42  E(vib)   ...       0.31
freq.     253.14  E(vib)   ...       0.30
freq.     256.94  E(vib)   ...       0.30
freq.     265.46  E(vib)   ...       0.29
freq.     272.46  E(vib)   ...       0.29
freq.     281.72  E(vib)   ...       0.28
freq.     291.32  E(vib)   ...       0.27
freq.     292.71  E(vib)   ...       0.27
freq.     302.63  E(vib)   ...       0.26
freq.     326.14  E(vib)   ...       0.24
freq.     329.48  E(vib)   ...       0.24
freq.     335.96  E(vib)   ...       0.24
freq.     384.31  E(vib)   ...       0.20
freq.     395.84  E(vib)   ...       0.20
freq.     407.22  E(vib)   ...       0.19
freq.     415.70  E(vib)   ...       0.18
freq.     439.74  E(vib)   ...       0.17
freq.     442.64  E(vib)   ...       0.17
freq.     458.38  E(vib)   ...       0.16
freq.     473.02  E(vib)   ...       0.15
freq.     498.38  E(vib)   ...       0.14
freq.     502.76  E(vib)   ...       0.14
freq.     524.71  E(vib)   ...       0.13
freq.     534.49  E(vib)   ...       0.13
freq.     549.17  E(vib)   ...       0.12
freq.     565.06  E(vib)   ...       0.11
freq.     584.25  E(vib)   ...       0.11
freq.     592.99  E(vib)   ...       0.10
freq.     608.53  E(vib)   ...       0.10
freq.     625.32  E(vib)   ...       0.09
freq.     642.65  E(vib)   ...       0.09
freq.     661.31  E(vib)   ...       0.08
freq.     664.90  E(vib)   ...       0.08
freq.     676.25  E(vib)   ...       0.08
freq.     684.81  E(vib)   ...       0.07
freq.     697.63  E(vib)   ...       0.07
freq.     703.95  E(vib)   ...       0.07
freq.     728.11  E(vib)   ...       0.06
freq.     765.90  E(vib)   ...       0.06
freq.     783.58  E(vib)   ...       0.05
freq.     791.37  E(vib)   ...       0.05
freq.     823.40  E(vib)   ...       0.05
freq.     848.63  E(vib)   ...       0.04
freq.     879.77  E(vib)   ...       0.04
freq.     906.96  E(vib)   ...       0.03
freq.     934.75  E(vib)   ...       0.03
freq.     936.58  E(vib)   ...       0.03
freq.    1001.75  E(vib)   ...       0.02
freq.    1077.09  E(vib)   ...       0.02
freq.    1617.07  E(vib)   ...       0.00
freq.    1632.21  E(vib)   ...       0.00
freq.    1634.10  E(vib)   ...       0.00
freq.    1635.95  E(vib)   ...       0.00
freq.    1646.45  E(vib)   ...       0.00
freq.    1652.67  E(vib)   ...       0.00
freq.    1658.52  E(vib)   ...       0.00
freq.    1666.10  E(vib)   ...       0.00
freq.    1668.91  E(vib)   ...       0.00
freq.    1673.14  E(vib)   ...       0.00
freq.    1689.14  E(vib)   ...       0.00
freq.    1692.19  E(vib)   ...       0.00
freq.    1700.23  E(vib)   ...       0.00
freq.    1720.55  E(vib)   ...       0.00
freq.    2197.66  E(vib)   ...       0.00
freq.    3031.01  E(vib)   ...       0.00
freq.    3216.32  E(vib)   ...       0.00
freq.    3240.91  E(vib)   ...       0.00
freq.    3315.16  E(vib)   ...       0.00
freq.    3428.11  E(vib)   ...       0.00
freq.    3451.71  E(vib)   ...       0.00
freq.    3461.31  E(vib)   ...       0.00
freq.    3477.45  E(vib)   ...       0.00
freq.    3547.09  E(vib)   ...       0.00
freq.    3556.59  E(vib)   ...       0.00
freq.    3587.99  E(vib)   ...       0.00
freq.    3592.22  E(vib)   ...       0.00
freq.    3685.66  E(vib)   ...       0.00
freq.    3701.16  E(vib)   ...       0.00
freq.    3710.86  E(vib)   ...       0.00
freq.    3716.08  E(vib)   ...       0.00
freq.    3720.46  E(vib)   ...       0.00
freq.    3770.01  E(vib)   ...       0.00
freq.    3771.87  E(vib)   ...       0.00
freq.    3780.18  E(vib)   ...       0.00
freq.    3787.32  E(vib)   ...       0.00
freq.    3797.69  E(vib)   ...       0.00
freq.    3849.28  E(vib)   ...       0.00
freq.    3905.74  E(vib)   ...       0.00
freq.    3908.61  E(vib)   ...       0.00
freq.    3913.27  E(vib)   ...       0.00
freq.    3914.95  E(vib)   ...       0.00
freq.    3919.17  E(vib)   ...       0.00

------------
INNER ENERGY
------------

The inner energy is: U= E(el) + E(ZPE) + E(vib) + E(rot) + E(trans)
    E(el)   - is the total energy from the electronic structure calculation
              = E(kin-el) + E(nuc-el) + E(el-el) + E(nuc-nuc)
    E(ZPE)  - the the zero temperature vibrational energy from the frequency calculation
    E(vib)  - the the finite temperature correction to E(ZPE) due to population
              of excited vibrational states
    E(rot)  - is the rotational thermal energy
    E(trans)- is the translational thermal energy

Summary of contributions to the inner energy U:
Electronic energy                ...  -1162.95817677 Eh
Zero point energy                ...      0.36248240 Eh     227.46 kcal/mol

Rotational constants in cm-1:     0.011951     0.006353     0.006206

                             ****ORCA TERMINATED NORMALLY****
TOTAL RUN TIME: 0 days 23 hours 46 minutes 5 seconds 467 msec
