                         Program Version 6.0.1  -  RELEASE   -
|  1> # ORCA input file
|  2> # Geometry optimization
|  3> ! BHANDHLYP cc-pVTZ
|  4> ! PAL6
|  5> ! OPT ANFREQ
|  6> ! XYZFILE
|  7>  %base "CH3OH_OPT"
|  8> * xyz 0 1
|  9>    C        1.02634        -0.09302        -0.01210
| 10>    O        2.44206        -0.10289        -0.01624
| 11>    H        0.66483         0.72484        -0.64023
| 12>    H        0.66483         0.03214         1.01151
| 13>    H        0.66325        -1.04333        -0.41063
| 14>    H        3.03498         1.05211         0.34233
| 15> *
| 16>
| 17>                          ****END OF INPUT****
 Total Charge           Charge          ....    0
 Multiplicity           Mult            ....    1
 Number of Electrons    NEL             ....   18
FINAL SINGLE POINT ENERGY      -115.624452716587
FINAL SINGLE POINT ENERGY      -115.663958029211
FINAL SINGLE POINT ENERGY      -115.695051181422
FINAL SINGLE POINT ENERGY      -115.695115802972
FINAL SINGLE POINT ENERGY      -115.701248476581
FINAL SINGLE POINT ENERGY      -115.701585008536
FINAL SINGLE POINT ENERGY      -115.701612193557
FINAL SINGLE POINT ENERGY      -115.701616139019
FINAL SINGLE POINT ENERGY      -115.701626277302
FINAL SINGLE POINT ENERGY      -115.701626970501
FINAL SINGLE POINT ENERGY      -115.701627417133
                    ***********************HURRAY********************

CARTESIAN COORDINATES (ANGSTROEM)
---------------------------------
  C      1.087307   -0.037125   -0.000935
  O      2.490577   -0.017751   -0.023916
  H      0.654713    0.735530   -0.631177
  H      0.690788    0.072151    1.005084
  H      0.774958   -0.998525   -0.383833
  H      2.797948    0.815570    0.309417

 Multiplicity           Mult            ....    1
 Number of Electrons    NEL             ....   18
 Basis Dimension        Dim             ....  116

ORBITAL ENERGIES
----------------

  NO   OCC          E(Eh)            E(eV)
   0   2.0000     -19.672905      -535.3270
   1   2.0000     -10.618886      -288.9546
   2   2.0000      -1.158856       -31.5341
   3   2.0000      -0.784835       -21.3565
   4   2.0000      -0.588859       -16.0237
   5   2.0000      -0.517622       -14.0852
   6   2.0000      -0.500222       -13.6117
   7   2.0000      -0.406396       -11.0586
   8   2.0000      -0.349035        -9.4977
   9   0.0000       0.067054         1.8246
  10   0.0000       0.104702         2.8491
  11   0.0000       0.149094         4.0570
  12   0.0000       0.151104         4.1118
  13   0.0000       0.203125         5.5273

MULLIKEN ATOMIC CHARGES
-----------------------
   0 C :   -0.063662
   1 O :   -0.368979
   2 H :    0.061281
   3 H :    0.060537
   4 H :    0.102114
   5 H :    0.208709
Sum of atomic charges:   -0.0000000

LOEWDIN ATOMIC CHARGES
----------------------
   0 C :   -0.007522
   1 O :    0.351703
   2 H :   -0.048461
   3 H :   -0.048508
   4 H :   -0.032520
   5 H :   -0.214693

  Mayer bond orders larger than 0.100000
B(  0-C ,  1-O ) :   1.0106 B(  0-C ,  2-H ) :   0.9588 B(  0-C ,  3-H ) :   0.9591
B(  0-C ,  4-H ) :   0.9682 B(  1-O ,  5-H ) :   1.0112

FINAL SINGLE POINT ENERGY      -115.701627453840

DIPOLE MOMENT
-------------

Method             : SCF
Type of density    : Electron Density
Multiplicity       :   1
Irrep              :   0
Energy             :  -115.7016274538404303 Eh
Relativity type    :
Basis              : AO
                                X                 Y                 Z
Electronic contribution:      1.791312545      -0.098113060      -0.079422946
Nuclear contribution   :     -2.152491600       0.597620802       0.291436668
                        -----------------------------------------
Total Dipole Moment    :     -0.361179055       0.499507742       0.212013722
                        -----------------------------------------
Magnitude (a.u.)       :      0.651849762
Magnitude (Debye)      :      1.656870421

VIBRATIONAL FREQUENCIES
-----------------------

Scaling factor for frequencies =  1.000000000  (already applied!)

     0:       0.00 cm**-1
     1:       0.00 cm**-1
     2:       0.00 cm**-1
     3:       0.00 cm**-1
     4:       0.00 cm**-1
     5:       0.00 cm**-1
     6:     296.67 cm**-1
     7:    1105.17 cm**-1
     8:    1132.14 cm**-1
     9:    1221.00 cm**-1
    10:    1421.74 cm**-1
    11:    1539.45 cm**-1
    12:    1552.44 cm**-1
    13:    1566.29 cm**-1
    14:    3079.50 cm**-1
    15:    3125.04 cm**-1
    16:    3192.19 cm**-1
    17:    4004.28 cm**-1

IR SPECTRUM
-----------

 Mode   freq       eps      Int      T**2         TX        TY        TZ
       cm**-1   L/(mol*cm) km/mol    a.u.
----------------------------------------------------------------------------
  6:    296.67   0.023364  118.07  0.024577  ( 0.003277 -0.059118  0.145159)
  7:   1105.17   0.020790  105.06  0.005870  ( 0.076448 -0.003911 -0.003288)
  8:   1132.14   0.004996   25.25  0.001377  ( 0.037016  0.002629  0.000298)
  9:   1221.00   0.000229    1.16  0.000059  ( 0.000150 -0.002885  0.007091)
 10:   1421.74   0.006250   31.59  0.001372  (-0.036118  0.007277  0.003805)
 11:   1539.45   0.000831    4.20  0.000169  (-0.012942  0.000795  0.000602)
 12:   1552.44   0.000474    2.40  0.000095  (-0.000197  0.003707 -0.009033)
 13:   1566.29   0.000850    4.30  0.000169  ( 0.004042  0.011462  0.004657)
 14:   3079.50   0.011978   60.53  0.001214  ( 0.032872 -0.010479 -0.004840)
 15:   3125.04   0.013224   66.83  0.001321  ( 0.000629 -0.013655  0.033671)
 16:   3192.19   0.006290   31.78  0.000615  (-0.004328 -0.022648 -0.009122)
 17:   4004.28   0.007776   39.30  0.000606  ( 0.014784  0.018332  0.007169)

--------------------------
THERMOCHEMISTRY AT 298.15K
--------------------------

Temperature         ...   298.15 K
Pressure            ...     1.00 atm
Total Mass          ...    32.04 AMU
Quasi RRHO          ...     True
Cut-Off Frequency   ...     1.00 cm^-1

Throughout the following assumptions are being made:
  (1) The electronic state is orbitally nondegenerate
  (2) There are no thermally accessible electronically excited states
  (3) Hindered rotations indicated by low frequency modes are not
      treated as such but are treated as vibrations and this may
      cause some error
  (4) All equations used are the standard statistical mechanics
      equations for an ideal gas
  (5) All vibrations are strictly harmonic

freq.     296.67  E(vib)   ...       0.27
freq.    1105.17  E(vib)   ...       0.02
freq.    1132.14  E(vib)   ...       0.01
freq.    1221.00  E(vib)   ...       0.01
freq.    1421.74  E(vib)   ...       0.00
freq.    1539.45  E(vib)   ...       0.00
freq.    1552.44  E(vib)   ...       0.00
freq.    1566.29  E(vib)   ...       0.00
freq.    3079.50  E(vib)   ...       0.00
freq.    3125.04  E(vib)   ...       0.00
freq.    3192.19  E(vib)   ...       0.00
freq.    4004.28  E(vib)   ...       0.00

------------
INNER ENERGY
------------

The inner energy is: U= E(el) + E(ZPE) + E(vib) + E(rot) + E(trans)
    E(el)   - is the total energy from the electronic structure calculation
              = E(kin-el) + E(nuc-el) + E(el-el) + E(nuc-nuc)
    E(ZPE)  - the the zero temperature vibrational energy from the frequency calculation
    E(vib)  - the the finite temperature correction to E(ZPE) due to population
              of excited vibrational states
    E(rot)  - is the rotational thermal energy
    E(trans)- is the translational thermal energy

Summary of contributions to the inner energy U:
Electronic energy                ...   -115.70162745 Eh
Zero point energy                ...      0.05293528 Eh      33.22 kcal/mol
Thermal vibrational correction   ...      0.00050481 Eh       0.32 kcal/mol
Thermal rotational correction    ...      0.00141627 Eh       0.89 kcal/mol
Thermal translational correction ...      0.00141627 Eh       0.89 kcal/mol
-----------------------------------------------------------------------
Total thermal energy                   -115.64535481 Eh

Summary of corrections to the electronic energy:
(perhaps to be used in another calculation)
Total thermal correction                  0.00333736 Eh       2.09 kcal/mol
Non-thermal (ZPE) correction              0.05293528 Eh      33.22 kcal/mol
-----------------------------------------------------------------------
Total correction                          0.05627264 Eh      35.31 kcal/mol

--------
ENTHALPY
--------

The enthalpy is H = U + kB*T
                kB is Boltzmann's constant
Total thermal energy              ...   -115.64535481 Eh
Thermal Enthalpy correction       ...      0.00094421 Eh       0.59 kcal/mol
-----------------------------------------------------------------------
Total Enthalpy                    ...   -115.64441060 Eh

Note: Only C1 symmetry has been detected, increase convergence thresholds
      if your molecule has a higher symmetry. Symmetry factor of 1.0 is
      used for the rotational entropy correction.

Note: Rotational entropy computed according to Herzberg
Infrared and Raman Spectra, Chapter V,1, Van Nostrand Reinhold, 1945
Point Group:  C1, Symmetry Number:   1
Rotational constants in cm-1:     4.374812     0.843115     0.814216

Vibrational entropy computed according to the QRRHO of S. Grimme
Chem.Eur.J. 2012 18 9955 using a reference frequency of 100.0 cm-1

-------
ENTROPY
-------

The entropy contributions are T*S = T*(S(el)+S(vib)+S(rot)+S(trans))
     S(el)   - electronic entropy
     S(vib)  - vibrational entropy
     S(rot)  - rotational entropy
     S(trans)- translational entropy
The entropies will be listed as multiplied by the temperature to get
units of energy

Electronic entropy                ...      0.00000000 Eh      0.00 kcal/mol
Vibrational entropy               ...      0.00077842 Eh      0.49 kcal/mol
Rotational entropy                ...      0.00899166 Eh      5.64 kcal/mol
Translational entropy             ...      0.01725935 Eh     10.83 kcal/mol
-----------------------------------------------------------------------
Final entropy term                ...      0.02702943 Eh     16.96 kcal/mol

In case the symmetry of your molecule has not been determined correctly
or in case you have a reason to use a different symmetry number we print
out the resulting rotational entropy values for sn=1,12:

 non-linear molecules -----------------------------------
|  sn= 1 | S(rot)=       0.00899166 Eh      5.64 kcal/mol|
|  sn= 2 | S(rot)=       0.00833720 Eh      5.23 kcal/mol|
|  sn= 3 | S(rot)=       0.00795437 Eh      4.99 kcal/mol|
|  sn= 4 | S(rot)=       0.00768275 Eh      4.82 kcal/mol|
|  sn= 5 | S(rot)=       0.00747206 Eh      4.69 kcal/mol|
|  sn= 6 | S(rot)=       0.00729992 Eh      4.58 kcal/mol|
|  sn= 7 | S(rot)=       0.00715437 Eh      4.49 kcal/mol|
|  sn= 8 | S(rot)=       0.00702829 Eh      4.41 kcal/mol|
|  sn= 9 | S(rot)=       0.00691708 Eh      4.34 kcal/mol|
|  sn=10 | S(rot)=       0.00681760 Eh      4.28 kcal/mol|
|  sn=11 | S(rot)=       0.00672761 Eh      4.22 kcal/mol|
|  sn=12 | S(rot)=       0.00664546 Eh      4.17 kcal/mol|
 linear molecules ---------------------------------------
|  Dinfh | S(rot)=       0.00551986 Eh      3.46 kcal/mol|
|  Cinfv | S(rot)=       0.00617432 Eh      3.87 kcal/mol|
 --------------------------------------------------------

-------------------
GIBBS FREE ENERGY
-------------------

The Gibbs free energy is G = H - T*S

Total enthalpy                    ...   -115.64441060 Eh
Total entropy correction          ...     -0.02702943 Eh    -16.96 kcal/mol
-----------------------------------------------------------------------
Final Gibbs free energy         ...   -115.67144003 Eh

For completeness - the Gibbs free energy minus the electronic energy
G-E(el)                           ...      0.03018742 Eh     18.94 kcal/mol

                             ****ORCA TERMINATED NORMALLY****
TOTAL RUN TIME: 0 days 0 hours 2 minutes 35 seconds 827 msec
